! TOUCHSTONE file generated by CST MICROWAVE STUDIO
! Date and time: Mon Oct 20 04:36:43 2025
! Project name: Diseño Final_German Pedre.cst
! Parameters = {Coef_Largo_Aba=2.5; Coef_Largo_Der=2.5; Cuarto=14; Cuarto2=8; Dist_Coef=0.15; Dist_sop=1.5; Er=4.6; Hc=0.035; Hr=1; Hs=1.524; Lamb=103.448; Lamb_sus=48.233; Lc=55; Le2=10; Lfeed=13.2; Lint=10.4; Lpad=1.5; Lr=2.15; Ls=55; LstubD=3; Lsup=8.3; Rpad=1; Rsop=1.5; Rvia=0.3; Wc=55; Wdelgada=0.6; WdelgadaA=0.7; WdelgadaD=1.4; We=0.75; Wfeed=4.5; Wgru=2.75; WgruA=3.3; WgruD=3.3; Wint=3; WintD=2; Wpadder=1; Wr=1.1; Ws=55; WstubD=1; Wsup=10.5; WtranA=2; WtranD=0.2; Xc=0; c=300; f=2.9}
! Header version: 2018
! Port assignment regex: !\s*Touchstone port\s*([0-9]+)\s*=\s*(CST MWS port|CST DS port)\s*([0-9]+|Zmin|Zmax)\s*\(\"(.*)\"\)(\s*mode\s*([0-9]+))?.*
! Touchstone port assignment:
! Touchstone port 1 = CST MWS port 1 ("")
! Touchstone port 2 = CST MWS port 2 ("")
# GHz S MA R 50
2.5                     0.436655         68.3036        0.0598057         170.555         0.059812         170.522         0.416024         59.2872
2.5008                  0.436153         68.1212        0.0597653         170.529        0.0597716         170.496         0.415575         59.0862
2.5016                   0.43565         67.9387        0.0597263         170.502        0.0597325         170.469         0.415126         58.8852
2.5024                  0.435146         67.7562        0.0596885         170.475        0.0596947         170.442         0.414677         58.6842
2.5032                  0.434641         67.5737         0.059652         170.448        0.0596581         170.415         0.414226         58.4832
2.504                   0.434135         67.3912        0.0596166         170.421        0.0596227         170.388         0.413775         58.2822
2.5048                  0.433629         67.2087        0.0595825         170.394        0.0595885          170.36         0.413324         58.0811
2.5056                  0.433121         67.0263        0.0595496         170.366        0.0595555         170.332         0.412872         57.8801
2.5064                  0.432613         66.8438        0.0595177         170.337        0.0595237         170.304         0.412419         57.6791
2.5072                  0.432104         66.6614         0.059487         170.309        0.0594929         170.275         0.411966         57.4781
2.508                   0.431594         66.4789        0.0594574          170.28        0.0594633         170.246         0.411513          57.277
2.5088                  0.431084         66.2964        0.0594289         170.251        0.0594347         170.217         0.411059          57.076
2.5096                  0.430573          66.114        0.0594014         170.221        0.0594072         170.187         0.410604         56.8749
2.5104                  0.430061         65.9315        0.0593749         170.191        0.0593806         170.157         0.410149         56.6739
2.5112                  0.429548         65.7491        0.0593494          170.16        0.0593551         170.126         0.409693         56.4728
2.512                   0.429034         65.5666        0.0593248         170.129        0.0593305         170.095         0.409237         56.2718
2.5128                   0.42852         65.3842        0.0593012         170.097        0.0593068         170.063          0.40878         56.0707
2.5136                  0.428005         65.2017        0.0592785         170.065        0.0592841         170.031         0.408323         55.8697
2.5144                  0.427489         65.0193        0.0592567         170.033        0.0592622         169.999         0.407865         55.6686
2.5152                  0.426972         64.8368        0.0592357         169.999        0.0592412         169.965         0.407407         55.4675
2.516                   0.426455         64.6544        0.0592156         169.966         0.059221         169.932         0.406948         55.2664
2.5168                  0.425937         64.4719        0.0591962         169.931        0.0592016         169.897         0.406489         55.0654
2.5176                  0.425419         64.2895        0.0591776         169.897         0.059183         169.862          0.40603         54.8643
2.5184                  0.424899          64.107        0.0591598         169.861        0.0591651         169.827          0.40557         54.6632
2.5192                  0.424379         63.9245        0.0591426         169.825        0.0591479         169.791         0.405109         54.4621
2.52                    0.423858         63.7421        0.0591262         169.789        0.0591315         169.754         0.404648         54.2609
2.5208                  0.423337         63.5596        0.0591104         169.752        0.0591156         169.717         0.404187         54.0598
2.5216                  0.422815         63.3771        0.0590953         169.714        0.0591005         169.679         0.403725         53.8587
2.5224                  0.422292         63.1946        0.0590807         169.676        0.0590859         169.641         0.403263         53.6576
2.5232                  0.421769         63.0121        0.0590667         169.637        0.0590719         169.602           0.4028         53.4564
2.524                   0.421245         62.8296        0.0590533         169.597        0.0590584         169.562         0.402337         53.2552
2.5248                   0.42072         62.6471        0.0590404         169.557        0.0590455         169.522         0.401873         53.0541
2.5256                  0.420194         62.4646        0.0590281         169.516        0.0590331         169.481         0.401409         52.8529
2.5264                  0.419668         62.2821        0.0590162         169.474        0.0590211         169.439         0.400945         52.6517
2.5272                  0.419142         62.0995        0.0590047         169.432        0.0590096         169.397          0.40048         52.4505
2.528                   0.418614          61.917        0.0589936         169.389        0.0589986         169.354         0.400014         52.2493
2.5288                  0.418086         61.7344         0.058983         169.345        0.0589879          169.31         0.399549         52.0481
2.5296                  0.417558         61.5518        0.0589727         169.301        0.0589776         169.266         0.399083         51.8468
2.5304                  0.417029         61.3692        0.0589628         169.256        0.0589676         169.221         0.398616         51.6456
2.5312                  0.416499         61.1866        0.0589532         169.211         0.058958         169.176         0.398149         51.4443
2.532                   0.415968          61.004        0.0589438         169.165        0.0589486         169.129         0.397682         51.2431
2.5328                  0.415437         60.8214        0.0589348         169.118        0.0589395         169.082         0.397214         51.0418
2.5336                  0.414905         60.6387         0.058926          169.07        0.0589307         169.035         0.396746         50.8405
2.5344                  0.414373          60.456        0.0589174         169.022         0.058922         168.987         0.396277         50.6391
2.5352                   0.41384         60.2734         0.058909         168.973        0.0589136         168.938         0.395809         50.4378
2.536                   0.413307         60.0906        0.0589007         168.924        0.0589053         168.888         0.395339         50.2364
2.5368                  0.412773         59.9079        0.0588926         168.874        0.0588972         168.838          0.39487         50.0351
2.5376                  0.412238         59.7252        0.0588847         168.823        0.0588892         168.787         0.394399         49.8337
2.5384                  0.411702         59.5424        0.0588768         168.772        0.0588813         168.736         0.393929         49.6323
2.5392                  0.411167         59.3596         0.058869          168.72        0.0588735         168.684         0.393458         49.4308
2.54                     0.41063         59.1768        0.0588613         168.667        0.0588658         168.631         0.392987         49.2294
2.5408                  0.410093         58.9939        0.0588536         168.614        0.0588581         168.578         0.392515         49.0279
2.5416                  0.409555          58.811        0.0588459          168.56        0.0588504         168.524         0.392043         48.8264
2.5424                  0.409017         58.6281        0.0588382         168.505        0.0588426         168.469         0.391571         48.6249
2.5432                  0.408478         58.4452        0.0588305          168.45        0.0588349         168.414         0.391098         48.4233
2.544                   0.407938         58.2623        0.0588227         168.394        0.0588271         168.358         0.390625         48.2218
2.5448                  0.407398         58.0793        0.0588149         168.338        0.0588192         168.302         0.390152         48.0202
2.5456                  0.406858         57.8963        0.0588069         168.281        0.0588112         168.245         0.389678         47.8186
2.5464                  0.406317         57.7132        0.0587989         168.224        0.0588031         168.187         0.389204         47.6169
2.5472                  0.405775         57.5301        0.0587907         168.166        0.0587949         168.129         0.388729         47.4153
2.548                   0.405232          57.347        0.0587823         168.107        0.0587866          168.07         0.388254         47.2136
2.5488                  0.404689         57.1639        0.0587738         168.048         0.058778         168.011         0.387779         47.0119
2.5496                  0.404146         56.9807        0.0587651         167.988        0.0587693         167.951         0.387303         46.8101
2.5504                  0.403601         56.7975        0.0587562         167.928        0.0587604         167.891         0.386827         46.6084
2.5512                  0.403057         56.6143        0.0587471         167.867        0.0587512          167.83          0.38635         46.4066
2.552                   0.402511          56.431        0.0587377         167.806        0.0587418         167.769         0.385873         46.2047
2.5528                  0.401965         56.2476        0.0587281         167.744        0.0587322         167.707         0.385396         46.0029
2.5536                  0.401419         56.0643        0.0587182         167.682        0.0587222         167.645         0.384918          45.801
2.5544                  0.400872         55.8809        0.0587079         167.619         0.058712         167.582          0.38444          45.599
2.5552                  0.400324         55.6974        0.0586974         167.556        0.0587015         167.519         0.383962         45.3971
2.556                   0.399776         55.5139        0.0586866         167.493        0.0586906         167.455         0.383483         45.1951
2.5568                  0.399227         55.3304        0.0586754         167.428        0.0586794         167.391         0.383004         44.9931
2.5576                  0.398677         55.1468        0.0586639         167.364        0.0586679         167.327         0.382524          44.791
2.5584                  0.398127         54.9632         0.058652         167.299        0.0586559         167.262         0.382045         44.5889
2.5592                  0.397576         54.7795        0.0586397         167.234        0.0586437         167.197         0.381564         44.3868
2.56                    0.397025         54.5958        0.0586271         167.168         0.058631         167.131         0.381083         44.1846
2.5608                  0.396473         54.4121         0.058614         167.102        0.0586179         167.065         0.380602         43.9824
2.5616                  0.395921         54.2282        0.0586005         167.036        0.0586043         166.998         0.380121         43.7802
2.5624                  0.395368         54.0444        0.0585865         166.969        0.0585904         166.932         0.379639         43.5779
2.5632                  0.394814         53.8605        0.0585722         166.902         0.058576         166.865         0.379157         43.3756
2.564                    0.39426         53.6765        0.0585573         166.835        0.0585611         166.797         0.378674         43.1732
2.5648                  0.393705         53.4925         0.058542         166.767        0.0585458         166.729         0.378191         42.9708
2.5656                  0.393149         53.3084        0.0585262         166.699          0.05853         166.661         0.377707         42.7683
2.5664                  0.392593         53.1243          0.05851         166.631        0.0585137         166.593         0.377224         42.5659
2.5672                  0.392036         52.9401        0.0584932         166.563        0.0584969         166.525         0.376739         42.3633
2.568                   0.391479         52.7559        0.0584759         166.494        0.0584796         166.456         0.376255         42.1607
2.5688                  0.390921         52.5716        0.0584581         166.425        0.0584618         166.387         0.375769         41.9581
2.5696                  0.390362         52.3872        0.0584398         166.356        0.0584435         166.318         0.375284         41.7554
2.5704                  0.389803         52.2028        0.0584209         166.287        0.0584246         166.248         0.374798         41.5527
2.5712                  0.389243         52.0183        0.0584015         166.217        0.0584052         166.179         0.374311           41.35
2.572                   0.388682         51.8338        0.0583816         166.148        0.0583852         166.109         0.373825         41.1472
2.5728                  0.388121         51.6492        0.0583611         166.078        0.0583647         166.039         0.373337         40.9443
2.5736                  0.387559         51.4646          0.05834         166.008        0.0583436         165.969          0.37285         40.7414
2.5744                  0.386996         51.2799        0.0583184         165.938        0.0583219         165.899         0.372362         40.5385
2.5752                  0.386433         51.0951        0.0582961         165.868        0.0582997         165.829         0.371873         40.3354
2.576                   0.385869         50.9102        0.0582733         165.797        0.0582769         165.759         0.371384         40.1324
2.5768                  0.385304         50.7253        0.0582499         165.727        0.0582534         165.688         0.370894         39.9293
2.5776                  0.384739         50.5403        0.0582259         165.657        0.0582294         165.618         0.370404         39.7261
2.5784                  0.384173         50.3553        0.0582014         165.587        0.0582048         165.548         0.369914         39.5229
2.5792                  0.383607         50.1702        0.0581762         165.516        0.0581796         165.477         0.369423         39.3197
2.58                    0.383039          49.985        0.0581504         165.446        0.0581538         165.407         0.368932         39.1163
2.5808                  0.382471         49.7997         0.058124         165.376        0.0581274         165.336          0.36844          38.913
2.5816                  0.381903         49.6144        0.0580969         165.305        0.0581003         165.266         0.367948         38.7095
2.5824                  0.381333          49.429        0.0580693         165.235        0.0580727         165.196         0.367455          38.506
2.5832                  0.380763         49.2435         0.058041         165.165        0.0580444         165.125         0.366962         38.3025
2.584                   0.380193         49.0579        0.0580122         165.095        0.0580155         165.055         0.366468         38.0989
2.5848                  0.379621         48.8723        0.0579827         165.025         0.057986         164.985         0.365974         37.8952
2.5856                  0.379049         48.6866        0.0579525         164.955        0.0579558         164.915         0.365479         37.6915
2.5864                  0.378476         48.5009        0.0579218         164.885        0.0579251         164.845         0.364984         37.4878
2.5872                  0.377902          48.315        0.0578904         164.815        0.0578937         164.776         0.364488         37.2839
2.588                   0.377328         48.1291        0.0578584         164.746        0.0578617         164.706         0.363992           37.08
2.5888                  0.376753         47.9431        0.0578258         164.677         0.057829         164.637         0.363495         36.8761
2.5896                  0.376177          47.757        0.0577926         164.608        0.0577958         164.568         0.362998         36.6721
2.5904                    0.3756         47.5708        0.0577587         164.539        0.0577619         164.499           0.3625          36.468
2.5912                  0.375023         47.3846        0.0577242          164.47        0.0577273          164.43         0.362002         36.2638
2.592                   0.374444         47.1983        0.0576891         164.402        0.0576922         164.362         0.361503         36.0596
2.5928                  0.373865         47.0118        0.0576533         164.334        0.0576564         164.293         0.361004         35.8554
2.5936                  0.373286         46.8253         0.057617         164.266        0.0576201         164.225         0.360504          35.651
2.5944                  0.372705         46.6388          0.05758         164.198        0.0575831         164.158         0.360003         35.4466
2.5952                  0.372124         46.4521        0.0575424         164.131        0.0575455         164.091         0.359502         35.2422
2.596                   0.371542         46.2654        0.0575042         164.064        0.0575072         164.024            0.359         35.0376
2.5968                  0.370959         46.0785        0.0574654         163.998        0.0574684         163.957         0.358498          34.833
2.5976                  0.370375         45.8916         0.057426         163.932         0.057429         163.891         0.357995         34.6284
2.5984                   0.36979         45.7046         0.057386         163.866         0.057389         163.825         0.357492         34.4236
2.5992                  0.369205         45.5175        0.0573454         163.801        0.0573484          163.76         0.356988         34.2188
2.6                     0.368619         45.3303        0.0573042         163.736        0.0573071         163.694         0.356483          34.014
2.6008                  0.368032         45.1431        0.0572625         163.671        0.0572654          163.63         0.355978          33.809
2.6016                  0.367444         44.9557        0.0572201         163.607         0.057223         163.566         0.355472          33.604
2.6024                  0.366855         44.7682        0.0571772         163.543          0.05718         163.502         0.354966         33.3989
2.6032                  0.366266         44.5807        0.0571337          163.48        0.0571365         163.439         0.354459         33.1938
2.604                   0.365675         44.3931        0.0570896         163.418        0.0570924         163.376         0.353951         32.9886
2.6048                  0.365084         44.2053         0.057045         163.356        0.0570478         163.314         0.353443         32.7833
2.6056                  0.364492         44.0175        0.0569999         163.294        0.0570026         163.252         0.352934         32.5779
2.6064                  0.363899         43.8296        0.0569542         163.233        0.0569569         163.191         0.352424         32.3725
2.6072                  0.363305         43.6416        0.0569079         163.172        0.0569106          163.13         0.351914          32.167
2.608                    0.36271         43.4535        0.0568612         163.112        0.0568638          163.07         0.351403         31.9614
2.6088                  0.362114         43.2653        0.0568139         163.053        0.0568165         163.011         0.350891         31.7557
2.6096                  0.361517          43.077        0.0567661         162.994        0.0567687         162.952         0.350379           31.55
2.6104                   0.36092         42.8886        0.0567178         162.936        0.0567204         162.894         0.349866         31.3442
2.6112                  0.360321         42.7001         0.056669         162.878        0.0566715         162.836         0.349352         31.1383
2.612                   0.359722         42.5116        0.0566198         162.822        0.0566222         162.779         0.348838         30.9323
2.6128                  0.359121         42.3229          0.05657         162.765        0.0565725         162.723         0.348323         30.7263
2.6136                   0.35852         42.1341        0.0565198          162.71        0.0565222         162.667         0.347807         30.5202
2.6144                  0.357918         41.9452        0.0564691         162.655        0.0564715         162.612         0.347291          30.314
2.6152                  0.357314         41.7563         0.056418         162.601        0.0564204         162.558         0.346773         30.1078
2.616                    0.35671         41.5672        0.0563664         162.547        0.0563688         162.504         0.346256         29.9014
2.6168                  0.356105          41.378        0.0563145         162.495        0.0563167         162.451         0.345737          29.695
2.6176                  0.355499         41.1887        0.0562621         162.443        0.0562643         162.399         0.345217         29.4885
2.6184                  0.354892         40.9994        0.0562093         162.391        0.0562115         162.348         0.344697         29.2819
2.6192                  0.354283         40.8099        0.0561561         162.341        0.0561582         162.297         0.344176         29.0753
2.62                    0.353674         40.6203        0.0561025         162.291        0.0561046         162.248         0.343655         28.8686
2.6208                  0.353064         40.4307        0.0560485         162.242        0.0560506         162.199         0.343132         28.6617
2.6216                  0.352453         40.2409        0.0559942         162.194        0.0559963         162.151         0.342609         28.4549
2.6224                  0.351841          40.051        0.0559396         162.147        0.0559416         162.103         0.342085         28.2479
2.6232                  0.351227          39.861        0.0558846         162.101        0.0558865         162.057          0.34156         28.0408
2.624                   0.350613         39.6709        0.0558292         162.055        0.0558312         162.011         0.341034         27.8337
2.6248                  0.349998         39.4807        0.0557736          162.01        0.0557755         161.966         0.340508         27.6265
2.6256                  0.349381         39.2904        0.0557177         161.967        0.0557195         161.922         0.339981         27.4192
2.6264                  0.348764            39.1        0.0556615         161.924        0.0556633         161.879         0.339453         27.2119
2.6272                  0.348145         38.9095         0.055605         161.882        0.0556068         161.837         0.338924         27.0044
2.628                   0.347526         38.7189        0.0555483          161.84          0.05555         161.796         0.338394         26.7969
2.6288                  0.346905         38.5282        0.0554913           161.8        0.0554929         161.755         0.337863         26.5893
2.6296                  0.346283         38.3374        0.0554341         161.761        0.0554357         161.716         0.337332         26.3816
2.6304                   0.34566         38.1465        0.0553766         161.722        0.0553782         161.677         0.336799         26.1738
2.6312                  0.345036         37.9555         0.055319         161.685        0.0553205          161.64         0.336266         25.9659
2.632                   0.344411         37.7643        0.0552612         161.649        0.0552626         161.603         0.335732          25.758
2.6328                  0.343785         37.5731        0.0552032         161.613        0.0552046         161.568         0.335197           25.55
2.6336                  0.343157         37.3818         0.055145         161.578        0.0551464         161.533         0.334661         25.3419
2.6344                  0.342529         37.1903        0.0550867         161.545         0.055088         161.499         0.334125         25.1337
2.6352                  0.341899         36.9987        0.0550283         161.512        0.0550295         161.467         0.333587         24.9254
2.636                   0.341268         36.8071        0.0549697         161.481        0.0549709         161.435         0.333048          24.717
2.6368                  0.340636         36.6153         0.054911          161.45        0.0549122         161.404         0.332509         24.5086
2.6376                  0.340003         36.4234        0.0548523         161.421        0.0548534         161.375         0.331968         24.3001
2.6384                  0.339369         36.2315        0.0547935         161.392        0.0547946         161.346         0.331427         24.0915
2.6392                  0.338734         36.0394        0.0547346         161.365        0.0547356         161.319         0.330885         23.8828
2.64                    0.338097         35.8472        0.0546757         161.339        0.0546767         161.292         0.330341         23.6741
2.6408                  0.337459         35.6549        0.0546168         161.313        0.0546177         161.267         0.329797         23.4652
2.6416                   0.33682         35.4625        0.0545579         161.289        0.0545587         161.243         0.329252         23.2563
2.6424                   0.33618           35.27         0.054499         161.266        0.0544997         161.219         0.328706         23.0473
2.6432                  0.335538         35.0773        0.0544401         161.244        0.0544408         161.197         0.328159         22.8382
2.644                   0.334895         34.8846        0.0543812         161.223        0.0543818         161.176         0.327611          22.629
2.6448                  0.334251         34.6918        0.0543224         161.203         0.054323         161.156         0.327061         22.4197
2.6456                  0.333606         34.4988        0.0542637         161.184        0.0542642         161.137         0.326511         22.2104
2.6464                   0.33296         34.3058         0.054205         161.166        0.0542055         161.119          0.32596          22.001
2.6472                  0.332312         34.1126        0.0541465          161.15        0.0541469         161.102         0.325408         21.7914
2.648                   0.331663         33.9194        0.0540881         161.134        0.0540884         161.087         0.324855         21.5818
2.6488                  0.331013          33.726        0.0540298          161.12        0.0540301         161.072           0.3243         21.3722
2.6496                  0.330361         33.5325        0.0539717         161.106        0.0539719         161.059         0.323745         21.1624
2.6504                  0.329709         33.3389        0.0539138         161.094        0.0539139         161.046         0.323189         20.9526
2.6512                  0.329055         33.1452         0.053856         161.083        0.0538561         161.035         0.322631         20.7427
2.652                   0.328399         32.9514        0.0537985         161.073        0.0537984         161.025         0.322073         20.5327
2.6528                  0.327743         32.7575        0.0537412         161.065        0.0537411         161.016         0.321513         20.3226
2.6536                  0.327085         32.5635        0.0536841         161.057        0.0536839         161.009         0.320953         20.1124
2.6544                  0.326425         32.3694        0.0536273          161.05         0.053627         161.002         0.320391         19.9022